; 35DCPN-DOCK.pdb.mol2_GMX.top created by acpype (v: 2022.7.21) on Wed Nov 12 12:35:28 2025

[ defaults ]
; nbfunc        comb-rule       gen-pairs       fudgeLJ fudgeQQ
1               2               yes             0.5     0.8333333333

; Include 35DCPN-DOCK.pdb.mol2_GMX.itp topology
#include "35DCPN-DOCK.pdb.mol2_GMX.itp"

; Ligand position restraints
#ifdef POSRES_LIG
#include "posre_35DCPN-DOCK.pdb.mol2.itp"
#endif

[ system ]
 35DCPN-DOCK.pdb.mol2

[ molecules ]
; Compound        nmols
 35DCPN-DOCK.pdb.mol2 1