[ atomtypes ]
;name   bond_type     mass     charge   ptype   sigma         epsilon       Amb
 ca       ca          0.00000  0.00000   A     3.39967e-01   3.59824e-01 ; 1.91  0.0860
 nb       nb          0.00000  0.00000   A     3.25000e-01   7.11280e-01 ; 1.82  0.1700
 n1       n1          0.00000  0.00000   A     3.25000e-01   7.11280e-01 ; 1.82  0.1700
 cg       cg          0.00000  0.00000   A     3.39967e-01   8.78640e-01 ; 1.91  0.2100
 cl       cl          0.00000  0.00000   A     3.47094e-01   1.10876e+00 ; 1.95  0.2650
 ha       ha          0.00000  0.00000   A     2.59964e-01   6.27600e-02 ; 1.46  0.0150
 h4       h4          0.00000  0.00000   A     2.51055e-01   6.27600e-02 ; 1.41  0.0150

[ moleculetype ]
;name            nrexcl
 LIG                     3

[ atoms ]
;   nr  type  resi  res  atom  cgnr     charge      mass       ; qtot   bond_type
     1   ca     1   UNL    C1    1     0.404200     12.01000 ; qtot 0.404
     2   nb     1   UNL    N6    2    -0.611000     14.01000 ; qtot -0.207
     3   n1     1   UNL   N11    3    -0.319800     14.01000 ; qtot -0.527
     4   ca     1   UNL   C12    4    -0.081900     12.01000 ; qtot -0.609
     5   ca     1   UNL   C23    5    -0.093000     12.01000 ; qtot -0.702
     6   ca     1   UNL   C34    6    -0.063900     12.01000 ; qtot -0.765
     7   ca     1   UNL   C45    7     0.497300     12.01000 ; qtot -0.268
     8   cg     1   UNL   C57    8     0.129800     12.01000 ; qtot -0.138
     9   cl     1   UNL  CL19    9    -0.047400     35.45000 ; qtot -0.186
    10   cl     1   UNL   CL8   10    -0.037400     35.45000 ; qtot -0.223
    11   ha     1   UNL  HH11   11     0.173000      1.00800 ; qtot -0.050
    12   h4     1   UNL   H11   12     0.050100      1.00800 ; qtot -0.000

[ bonds ]
;   ai     aj funct   r             k
     1      2   1    1.3390e-01    4.0836e+05 ;     C1 - N6    
     1      4   1    1.3984e-01    3.8585e+05 ;     C1 - C12   
     1     12   1    1.0890e-01    2.8577e+05 ;     C1 - H11   
     2      7   1    1.3390e-01    4.0836e+05 ;     N6 - C45   
     3      8   1    1.1566e-01    7.8919e+05 ;    N11 - C57   
     4      5   1    1.3984e-01    3.8585e+05 ;    C12 - C23   
     4      9   1    1.7502e-01    2.5573e+05 ;    C12 - CL19  
     5      6   1    1.3984e-01    3.8585e+05 ;    C23 - C34   
     5     11   1    1.0860e-01    2.8937e+05 ;    C23 - HH11  
     6      7   1    1.3984e-01    3.8585e+05 ;    C34 - C45   
     6     10   1    1.7502e-01    2.5573e+05 ;    C34 - CL8   
     7      8   1    1.4328e-01    3.4585e+05 ;    C45 - C57   

[ pairs ]
;   ai     aj    funct
     1      6      1 ;     C1 - C34   
     1      8      1 ;     C1 - C57   
     1     11      1 ;     C1 - HH11  
     2      3      1 ;     N6 - N11   
     2      5      1 ;     N6 - C23   
     2      9      1 ;     N6 - CL19  
     2     10      1 ;     N6 - CL8   
     3      6      1 ;    N11 - C34   
     4      7      1 ;    C12 - C45   
     4     10      1 ;    C12 - CL8   
     5      8      1 ;    C23 - C57   
     6      9      1 ;    C34 - CL19  
     7     11      1 ;    C45 - HH11  
     8     10      1 ;    C57 - CL8   
     9     11      1 ;   CL19 - HH11  
    10     11      1 ;    CL8 - HH11  
    12      5      1 ;    H11 - C23   
    12      7      1 ;    H11 - C45   
    12      9      1 ;    H11 - CL19  

[ angles ]
;   ai     aj     ak    funct   theta         cth
     1      2      7      1    1.1722e+02    5.7153e+02 ;     C1 - N6     - C45   
     1      4      5      1    1.2002e+02    5.5731e+02 ;     C1 - C12    - C23   
     1      4      9      1    1.1939e+02    4.8451e+02 ;     C1 - C12    - CL19  
     2      1      4      1    1.2294e+02    5.7572e+02 ;     N6 - C1     - C12   
     2      1     12      1    1.1603e+02    4.3430e+02 ;     N6 - C1     - H11   
     2      7      6      1    1.2294e+02    5.7572e+02 ;     N6 - C45    - C34   
     2      7      8      1    1.1687e+02    5.8241e+02 ;     N6 - C45    - C57   
     3      8      7      1    1.7949e+02    4.9288e+02 ;    N11 - C57    - C45   
     4      1     12      1    1.2034e+02    4.0250e+02 ;    C12 - C1     - H11   
     4      5      6      1    1.2002e+02    5.5731e+02 ;    C12 - C23    - C34   
     4      5     11      1    1.1988e+02    4.0334e+02 ;    C12 - C23    - HH11  
     5      4      9      1    1.1939e+02    4.8451e+02 ;    C23 - C12    - CL19  
     5      6      7      1    1.2002e+02    5.5731e+02 ;    C23 - C34    - C45   
     5      6     10      1    1.1939e+02    4.8451e+02 ;    C23 - C34    - CL8   
     6      5     11      1    1.1988e+02    4.0334e+02 ;    C34 - C23    - HH11  
     6      7      8      1    1.2027e+02    5.4978e+02 ;    C34 - C45    - C57   
     7      6     10      1    1.1939e+02    4.8451e+02 ;    C45 - C34    - CL8   

[ dihedrals ] ; propers
; for gromacs 4.5 or higher, using funct 9
;    i      j      k      l   func   phase     kd      pn
     1      2      7      6      9   180.00  20.08320   2 ;     C1-    N6-   C45-   C34
     1      2      7      8      9   180.00  20.08320   2 ;     C1-    N6-   C45-   C57
     1      4      5      6      9   180.00  15.16700   2 ;     C1-   C12-   C23-   C34
     1      4      5     11      9   180.00  15.16700   2 ;     C1-   C12-   C23-  HH11
     2      1      4      5      9   180.00  15.16700   2 ;     N6-    C1-   C12-   C23
     2      1      4      9      9   180.00  15.16700   2 ;     N6-    C1-   C12-  CL19
     2      7      6      5      9   180.00  15.16700   2 ;     N6-   C45-   C34-   C23
     2      7      6     10      9   180.00  15.16700   2 ;     N6-   C45-   C34-   CL8
     2      7      8      3      9   180.00   0.00000   2 ;     N6-   C45-   C57-   N11
     3      8      7      6      9   180.00   0.00000   2 ;    N11-   C57-   C45-   C34
     4      1      2      7      9   180.00  20.08320   2 ;    C12-    C1-    N6-   C45
     4      5      6      7      9   180.00  15.16700   2 ;    C12-   C23-   C34-   C45
     4      5      6     10      9   180.00  15.16700   2 ;    C12-   C23-   C34-   CL8
     5      6      7      8      9   180.00  15.16700   2 ;    C23-   C34-   C45-   C57
     6      5      4      9      9   180.00  15.16700   2 ;    C34-   C23-   C12-  CL19
     7      6      5     11      9   180.00  15.16700   2 ;    C45-   C34-   C23-  HH11
     8      7      6     10      9   180.00  15.16700   2 ;    C57-   C45-   C34-   CL8
     9      4      5     11      9   180.00  15.16700   2 ;   CL19-   C12-   C23-  HH11
    10      6      5     11      9   180.00  15.16700   2 ;    CL8-   C34-   C23-  HH11
    12      1      2      7      9   180.00  20.08320   2 ;    H11-    C1-    N6-   C45
    12      1      4      5      9   180.00  15.16700   2 ;    H11-    C1-   C12-   C23
    12      1      4      9      9   180.00  15.16700   2 ;    H11-    C1-   C12-  CL19

[ dihedrals ] ; impropers
; treated as propers in GROMACS to use correct AMBER analytical function
;    i      j      k      l   func   phase     kd      pn
     1      5      4      9      4   180.00   4.60240   2 ;     C1-   C23-   C12-  CL19
     2      1     12      4      4   180.00   4.60240   2 ;     N6-    C1-   H11-   C12
     4      6      5     11      4   180.00   4.60240   2 ;    C12-   C34-   C23-  HH11
     5      7      6     10      4   180.00   4.60240   2 ;    C23-   C45-   C34-   CL8
     6      8      7      2      4   180.00   4.60240   2 ;    C34-   C57-   C45-    N6